version 2
run mf_D2D_1to2_Vadere_00-0-20191217-10:07:37-7
attr configname mf_D2D_1to2_Vadere_00
attr datetime 20191217-10:07:37
attr experiment mf_D2D_1to2_Vadere_00
attr inifile omnetpp.ini
attr iterationvars $F=1
attr iterationvarsf F=1-
attr measurement $F=1
attr network rover.simulations.networks.LTE_d2d_Vadere
attr processid 7
attr repetition 0
attr replication #0
attr resultdir results
attr runnumber 0
attr seedset 0
itervar F 1
param *.manager.updateInterval 0.4s
param *.manager.host "\"vadere\""
param *.manager.port 9998
param *.manager.moduleType "\"pedestrian=rover.nodes.MobileUe\""
param *.manager.moduleName "\"pedestrian=ueD2D\""
param *.manager.moduleDisplayString "\"pedestrian='i=veins/node/pedestrian;is=vs'\""
param *.manager.margin 0
param *.manager.vadereCachePath "\"vadere-cache/veins-test\""
param *.manager.visualizer "\"visualization\""
param *.manager.vadereScenarioPath "\"vadere/scenarios/mf_klein_initial_peds.scenario\""
param *.physicalEnvironment.config "xmldoc(\"mf_klein_initial_peds_env.xml\")"
param *.physicalEnvironment.spaceMinX -100m
param *.physicalEnvironment.spaceMinY -100m
param *.physicalEnvironment.spaceMinZ -100m
param *.physicalEnvironment.spaceMaxX 600m
param *.physicalEnvironment.spaceMaxY 600m
param *.physicalEnvironment.spaceMaxZ 600m
param *.ueD2D[*].numApps 1
param *.ueD2D[0..4].app[*].typename "\"AlertSender\""
param *.ueD2D[0..4].app[*].localPort 3088+ancestorIndex(0)
param *.ueD2D[0..4].app[*].startTime uniform(0s,0.02s)
param *.ueD2D[0..4].app[*].stopTime 20s
param *.ueD2D[0..4].app[*].destAddress "\"224.0.0.10\""
param *.ueD2D[0..4].app[*].destPort 1000
param *.ueD2D[4..].app[*].typename "\"AlertReceiver\""
param *.ueD2D[4..].app[*].localPort 1000
param *.eNB*.nicType "\"LteNicEnbD2D\""
param *.ueD2D*[*].nicType "\"LteNicUeD2D\""
param **.amcMode "\"D2D\""
param *.ueD2D[*].configurator.mcastGroups "\"224.0.0.10\""
param **.usePreconfiguredTxParams true
param **.d2dCqi 7
param **.routingRecorder.enabled true
param **.mobility.constraintAreaMinZ 0m
param **.mobility.constraintAreaMaxZ 0m
param **.numRbDl 50
param **.numRbUl 50
param **.numBands 50
param *.eNB.mobility.initFromDisplayString false
param *.eNB.mobility.initialX 20m
param *.eNB.mobility.initialY 20m
param *.numUeCell 0
param *.numUeD2D 0
param *.foo 1
param *.ue*[*].macCellId 1
param *.ue*[*].masterId 1

vector 0 LTE_d2d_Vadere.eNB.lteNic.channelModel rcvdSinr:vector ETV
attr source rcvdSinr
attr title "SINR measured at packet reception, vector"
attr unit dB
vector 1 LTE_d2d_Vadere.ueD2D[9].app[0] alertDelay:vector ETV
attr source alertDelay
attr title "Alert Message Delay, vector"
attr unit s
vector 2 LTE_d2d_Vadere.ueD2D[9].app[0] alertRcvdMsg:vector ETV
attr source alertRcvdMsg
attr title "Alert Messages Received, vector"
attr unit s
0	-1	0.41	28.57780138536
0	-1	0.41	34.011504166249
0	-1	0.415	37.74049926254
0	-1	0.415	33.357903127265
0	-1	0.415	33.103427443819
0	-1	0.417	19.810434204009
0	-1	0.42	37.74049926254
0	-1	0.422	19.810434204009
0	-1	0.43	28.57780138536
0	-1	0.43	34.011504166249
0	-1	0.435	37.74049926254
0	-1	0.435	33.357903127265
0	-1	0.435	33.103427443819
0	-1	0.437	19.810434204009
0	-1	0.44	37.74049926254
0	-1	0.442	19.810434204009
0	-1	0.45	28.57780138536
0	-1	0.45	34.011504166249
0	-1	0.455	37.74049926254
0	-1	0.455	33.357903127265
0	-1	0.455	33.103427443819
0	-1	0.457	19.810434204009
0	-1	0.46	37.74049926254
0	-1	0.462	19.810434204009
0	-1	0.47	28.57780138536
0	-1	0.47	34.011504166249
0	-1	0.475	37.74049926254
0	-1	0.475	33.357903127265
0	-1	0.475	33.103427443819
0	-1	0.477	19.810434204009
0	-1	0.48	37.74049926254
0	-1	0.482	19.810434204009
0	-1	0.49	28.57780138536
0	-1	0.49	34.011504166249
0	-1	0.495	37.74049926254
0	-1	0.495	33.357903127265
0	-1	0.495	33.103427443819
0	-1	0.497	19.810434204009
0	-1	0.5	37.74049926254
0	-1	0.502	19.810434204009
0	-1	0.51	28.57780138536
0	-1	0.51	34.011504166249
0	-1	0.515	37.74049926254
0	-1	0.515	33.357903127265
0	-1	0.515	33.103427443819
0	-1	0.517	19.810434204009
0	-1	0.52	37.74049926254
0	-1	0.522	19.810434204009
0	-1	0.53	28.57780138536
0	-1	0.53	34.011504166249
0	-1	0.535	37.74049926254
0	-1	0.535	33.357903127265
0	-1	0.535	33.103427443819
0	-1	0.537	19.810434204009
0	-1	0.54	37.74049926254
0	-1	0.542	19.810434204009
0	-1	0.55	28.57780138536
0	-1	0.55	34.011504166249
0	-1	0.555	37.74049926254
0	-1	0.555	33.357903127265
0	-1	0.555	33.103427443819
0	-1	0.557	19.810434204009
0	-1	0.56	37.74049926254
0	-1	0.562	19.810434204009
0	-1	0.57	28.57780138536
0	-1	0.57	34.011504166249
0	-1	0.575	37.74049926254
0	-1	0.575	33.357903127265
0	-1	0.575	33.103427443819
0	-1	0.577	19.810434204009
0	-1	0.58	37.74049926254
0	-1	0.582	19.810434204009
0	-1	0.59	28.57780138536
0	-1	0.59	34.011504166249
0	-1	0.595	37.74049926254
0	-1	0.595	33.357903127265
0	-1	0.595	33.103427443819
0	-1	0.597	19.810434204009
0	-1	0.6	37.74049926254
0	-1	0.602	19.810434204009
0	-1	0.61	28.57780138536
0	-1	0.61	34.011504166249
0	-1	0.615	37.74049926254
0	-1	0.615	33.357903127265
0	-1	0.615	33.103427443819
0	-1	0.617	19.810434204009
0	-1	0.62	37.74049926254
0	-1	0.622	19.810434204009
0	-1	0.63	28.57780138536
0	-1	0.63	34.011504166249
0	-1	0.635	37.74049926254
0	-1	0.635	33.357903127265
0	-1	0.635	33.103427443819
0	-1	0.637	19.810434204009
0	-1	0.64	37.74049926254
0	-1	0.642	19.810434204009
0	-1	0.65	28.57780138536
0	-1	0.65	34.011504166249
0	-1	0.655	37.74049926254
0	-1	0.655	33.357903127265
0	-1	0.655	33.103427443819
0	-1	0.657	19.810434204009
0	-1	0.66	37.74049926254
0	-1	0.662	19.810434204009
0	-1	0.67	28.57780138536
0	-1	0.67	34.011504166249
0	-1	0.675	37.74049926254
0	-1	0.675	33.357903127265
0	-1	0.675	33.103427443819
0	-1	0.677	19.810434204009
0	-1	0.68	37.74049926254
0	-1	0.682	19.810434204009
0	-1	0.69	28.57780138536
0	-1	0.69	34.011504166249
0	-1	0.695	37.74049926254
0	-1	0.695	33.357903127265
0	-1	0.695	33.103427443819
0	-1	0.697	19.810434204009
0	-1	0.7	37.74049926254
0	-1	0.702	19.810434204009
0	-1	0.71	28.57780138536
0	-1	0.71	34.011504166249
0	-1	0.715	37.74049926254
0	-1	0.715	33.357903127265
0	-1	0.715	33.103427443819
0	-1	0.717	19.810434204009
0	-1	0.72	37.74049926254
0	-1	0.722	19.810434204009
0	-1	0.73	28.57780138536
0	-1	0.73	34.011504166249
0	-1	0.735	37.74049926254
0	-1	0.735	33.357903127265
0	-1	0.735	33.103427443819
0	-1	0.737	19.810434204009
0	-1	0.74	37.74049926254
0	-1	0.742	19.810434204009
0	-1	0.75	28.57780138536
0	-1	0.75	34.011504166249
0	-1	0.755	37.74049926254
0	-1	0.755	33.357903127265
0	-1	0.755	33.103427443819
0	-1	0.757	19.810434204009
0	-1	0.76	37.74049926254
0	-1	0.762	19.810434204009
0	-1	0.77	28.57780138536
0	-1	0.77	34.011504166249
0	-1	0.775	37.74049926254
0	-1	0.775	33.357903127265
0	-1	0.775	33.103427443819
0	-1	0.777	19.810434204009
0	-1	0.78	37.74049926254
0	-1	0.782	19.810434204009
0	-1	0.79	28.57780138536
0	-1	0.79	34.011504166249
0	-1	0.795	37.74049926254
0	-1	0.795	33.357903127265
0	-1	0.795	33.103427443819
0	-1	0.797	19.810434204009
0	-1	0.8	37.74049926254
0	-1	0.802	15.381055102198
0	-1	0.81	22.34439199187
0	-1	0.81	33.821255555275
0	-1	0.815	36.497369744054
0	-1	0.815	27.124493733775
0	-1	0.815	32.913178832845
0	-1	0.817	18.713634941884
0	-1	0.82	36.497369744054
0	-1	0.822	18.713634941884
0	-1	0.83	22.34439199187
0	-1	0.83	33.821255555275
0	-1	0.835	36.497369744054
0	-1	0.835	27.124493733775
0	-1	0.835	32.913178832845
0	-1	0.837	18.713634941884
0	-1	0.84	36.497369744054
0	-1	0.842	18.713634941884
0	-1	0.85	22.34439199187
0	-1	0.85	33.821255555275
0	-1	0.855	36.497369744054
0	-1	0.855	27.124493733775
0	-1	0.855	32.913178832845
0	-1	0.857	18.713634941884
0	-1	0.86	36.497369744054
0	-1	0.862	18.713634941884
0	-1	0.87	22.34439199187
0	-1	0.87	33.821255555275
0	-1	0.875	36.497369744054
0	-1	0.875	27.124493733775
0	-1	0.875	32.913178832845
0	-1	0.877	18.713634941884
0	-1	0.88	36.497369744054
0	-1	0.882	18.713634941884
0	-1	0.89	22.34439199187
0	-1	0.89	33.821255555275
0	-1	0.895	36.497369744054
0	-1	0.895	27.124493733775
0	-1	0.895	32.913178832845
0	-1	0.897	18.713634941884
0	-1	0.9	36.497369744054
0	-1	0.902	18.713634941884
0	-1	0.91	22.34439199187
0	-1	0.91	33.821255555275
0	-1	0.915	36.497369744054
0	-1	0.915	27.124493733775
0	-1	0.915	32.913178832845
0	-1	0.917	18.713634941884
0	-1	0.92	36.497369744054
0	-1	0.922	18.713634941884
0	-1	0.93	22.34439199187
0	-1	0.93	33.821255555275
0	-1	0.935	36.497369744054
0	-1	0.935	27.124493733775
0	-1	0.935	32.913178832845
0	-1	0.937	18.713634941884
0	-1	0.94	36.497369744054
0	-1	0.942	18.713634941884
0	-1	0.95	22.34439199187
0	-1	0.95	33.821255555275
0	-1	0.955	36.497369744054
0	-1	0.955	27.124493733775
0	-1	0.955	32.913178832845
0	-1	0.957	18.713634941884
0	-1	0.96	36.497369744054
0	-1	0.962	18.713634941884
0	-1	0.97	22.34439199187
0	-1	0.97	33.821255555275
0	-1	0.975	36.497369744054
0	-1	0.975	27.124493733775
0	-1	0.975	32.913178832845
0	-1	0.977	18.713634941884
0	-1	0.98	36.497369744054
0	-1	0.982	18.713634941884
0	-1	0.99	22.34439199187
0	-1	0.99	33.821255555275
0	-1	0.995	36.497369744054
0	-1	0.995	27.124493733775
0	-1	0.995	32.913178832845
0	-1	0.997	18.713634941884
0	-1	1	36.497369744054
0	-1	1.002	18.713634941884
0	-1	1.01	22.34439199187
0	-1	1.01	33.821255555275
0	-1	1.015	36.497369744054
0	-1	1.015	27.124493733775
0	-1	1.015	32.913178832845
0	-1	1.017	18.713634941884
0	-1	1.02	36.497369744054
0	-1	1.022	18.713634941884
0	-1	1.03	22.34439199187
0	-1	1.03	33.821255555275
0	-1	1.035	36.497369744054
0	-1	1.035	27.124493733775
0	-1	1.035	32.913178832845
0	-1	1.037	18.713634941884
0	-1	1.04	36.497369744054
0	-1	1.042	18.713634941884
0	-1	1.05	22.34439199187
0	-1	1.05	33.821255555275
0	-1	1.055	36.497369744054
0	-1	1.055	27.124493733775
0	-1	1.055	32.913178832845
0	-1	1.057	18.713634941884
0	-1	1.06	36.497369744054
0	-1	1.062	18.713634941884
0	-1	1.07	22.34439199187
0	-1	1.07	33.821255555275
0	-1	1.075	36.497369744054
0	-1	1.075	27.124493733775
0	-1	1.075	32.913178832845
0	-1	1.077	18.713634941884
0	-1	1.08	36.497369744054
0	-1	1.082	18.713634941884
0	-1	1.09	22.34439199187
0	-1	1.09	33.821255555275
0	-1	1.095	36.497369744054
0	-1	1.095	27.124493733775
0	-1	1.095	32.913178832845
0	-1	1.097	18.713634941884
0	-1	1.1	36.497369744054
0	-1	1.102	18.713634941884
0	-1	1.11	22.34439199187
0	-1	1.11	33.821255555275
0	-1	1.115	36.497369744054
0	-1	1.115	27.124493733775
0	-1	1.115	32.913178832845
0	-1	1.117	18.713634941884
0	-1	1.12	36.497369744054
0	-1	1.122	18.713634941884
0	-1	1.13	22.34439199187
0	-1	1.13	33.821255555275
0	-1	1.135	36.497369744054
0	-1	1.135	27.124493733775
0	-1	1.135	32.913178832845
0	-1	1.137	18.713634941884
0	-1	1.14	36.497369744054
0	-1	1.142	18.713634941884
0	-1	1.15	22.34439199187
0	-1	1.15	33.821255555275
0	-1	1.155	36.497369744054
0	-1	1.155	27.124493733775
0	-1	1.155	32.913178832845
0	-1	1.157	18.713634941884
0	-1	1.16	36.497369744054
0	-1	1.162	18.713634941884
0	-1	1.17	22.34439199187
0	-1	1.17	33.821255555275
0	-1	1.175	36.497369744054
0	-1	1.175	27.124493733775
0	-1	1.175	32.913178832845
0	-1	1.177	18.713634941884
0	-1	1.18	36.497369744054
0	-1	1.182	18.713634941884
0	-1	1.19	22.34439199187
0	-1	1.19	33.821255555275
0	-1	1.195	36.497369744054
0	-1	1.195	27.124493733775
0	-1	1.195	32.913178832845
0	-1	1.197	18.713634941884
0	-1	1.2	36.497369744054
0	-1	1.202	18.713634941884
0	-1	1.21	22.34439199187
0	-1	1.21	33.821255555275
0	-1	1.215	36.497369744054
0	-1	1.215	27.124493733775
0	-1	1.215	32.913178832845
0	-1	1.217	18.713634941884
0	-1	1.22	36.497369744054
0	-1	1.222	18.713634941884
0	-1	1.23	22.34439199187
0	-1	1.23	33.821255555275
0	-1	1.235	36.497369744054
0	-1	1.235	27.124493733775
0	-1	1.235	32.913178832845
0	-1	1.237	18.713634941884
0	-1	1.24	36.497369744054
0	-1	1.242	18.713634941884
0	-1	1.25	22.34439199187
0	-1	1.25	33.821255555275
0	-1	1.255	36.497369744054
0	-1	1.255	27.124493733775
0	-1	1.255	32.913178832845
0	-1	1.257	18.713634941884
0	-1	1.26	36.497369744054
0	-1	1.262	18.713634941884
0	-1	1.27	22.34439199187
0	-1	1.27	33.821255555275
0	-1	1.275	36.497369744054
0	-1	1.275	27.124493733775
0	-1	1.275	32.913178832845
0	-1	1.277	18.713634941884
0	-1	1.28	36.497369744054
0	-1	1.282	18.713634941884
0	-1	1.29	22.34439199187
0	-1	1.29	33.821255555275
0	-1	1.295	36.497369744054
0	-1	1.295	27.124493733775
0	-1	1.295	32.913178832845
0	-1	1.297	18.713634941884
0	-1	1.3	36.497369744054
0	-1	1.302	18.713634941884
0	-1	1.31	22.34439199187
0	-1	1.31	33.821255555275
0	-1	1.315	36.497369744054
0	-1	1.315	27.124493733775
0	-1	1.315	32.913178832845
0	-1	1.317	18.713634941884
0	-1	1.32	36.497369744054
0	-1	1.322	18.713634941884
0	-1	1.33	22.34439199187
0	-1	1.33	33.821255555275
0	-1	1.335	36.497369744054
0	-1	1.335	27.124493733775
0	-1	1.335	32.913178832845
0	-1	1.337	18.713634941884
0	-1	1.34	36.497369744054
0	-1	1.342	18.713634941884
0	-1	1.35	22.34439199187
0	-1	1.35	33.821255555275
0	-1	1.355	36.497369744054
0	-1	1.355	27.124493733775
0	-1	1.355	32.913178832845
0	-1	1.357	18.713634941884
0	-1	1.36	36.497369744054
0	-1	1.362	18.713634941884
0	-1	1.37	22.34439199187
0	-1	1.37	33.821255555275
0	-1	1.375	36.497369744054
0	-1	1.375	27.124493733775
0	-1	1.375	32.913178832845
0	-1	1.377	18.713634941884
0	-1	1.38	36.497369744054
0	-1	1.382	18.713634941884
0	-1	1.39	22.34439199187
0	-1	1.39	33.821255555275
0	-1	1.395	36.497369744054
0	-1	1.395	27.124493733775
0	-1	1.395	32.913178832845
0	-1	1.397	18.713634941884
0	-1	1.4	36.497369744054
0	-1	1.402	18.713634941884
0	-1	1.41	22.34439199187
0	-1	1.41	33.821255555275
0	-1	1.415	36.497369744054
0	-1	1.415	27.124493733775
0	-1	1.415	32.913178832845
0	-1	1.417	18.713634941884
0	-1	1.42	36.497369744054
0	-1	1.422	18.713634941884
0	-1	1.43	22.34439199187
0	-1	1.43	33.821255555275
0	-1	1.435	36.497369744054
0	-1	1.435	27.124493733775
0	-1	1.435	32.913178832845
0	-1	1.437	18.713634941884
0	-1	1.44	36.497369744054
0	-1	1.442	18.713634941884
0	-1	1.45	22.34439199187
0	-1	1.45	33.821255555275
0	-1	1.455	36.497369744054
0	-1	1.455	27.124493733775
0	-1	1.455	32.913178832845
0	-1	1.457	18.713634941884
0	-1	1.46	36.497369744054
0	-1	1.462	18.713634941884
0	-1	1.47	22.34439199187
0	-1	1.47	33.821255555275
0	-1	1.475	36.497369744054
0	-1	1.475	27.124493733775
0	-1	1.475	32.913178832845
0	-1	1.477	18.713634941884
0	-1	1.48	36.497369744054
0	-1	1.482	18.713634941884
0	-1	1.49	22.34439199187
0	-1	1.49	33.821255555275
0	-1	1.495	36.497369744054
0	-1	1.495	27.124493733775
0	-1	1.495	32.913178832845
0	-1	1.497	18.713634941884
0	-1	1.5	36.497369744054
0	-1	1.502	18.713634941884
0	-1	1.51	22.34439199187
0	-1	1.51	33.821255555275
0	-1	1.515	36.497369744054
0	-1	1.515	27.124493733775
0	-1	1.515	32.913178832845
0	-1	1.517	18.713634941884
0	-1	1.52	36.497369744054
0	-1	1.522	18.713634941884
0	-1	1.53	22.34439199187
0	-1	1.53	33.821255555275
0	-1	1.535	36.497369744054
0	-1	1.535	27.124493733775
0	-1	1.535	32.913178832845
0	-1	1.537	18.713634941884
0	-1	1.54	36.497369744054
0	-1	1.542	18.713634941884
0	-1	1.55	22.34439199187
0	-1	1.55	33.821255555275
0	-1	1.555	36.497369744054
0	-1	1.555	27.124493733775
0	-1	1.555	32.913178832845
0	-1	1.557	18.713634941884
0	-1	1.56	36.497369744054
0	-1	1.562	18.713634941884
0	-1	1.57	22.34439199187
0	-1	1.57	33.821255555275
0	-1	1.575	36.497369744054
0	-1	1.575	27.124493733775
0	-1	1.575	32.913178832845
0	-1	1.577	18.713634941884
0	-1	1.58	36.497369744054
0	-1	1.582	18.713634941884
0	-1	1.59	22.34439199187
0	-1	1.59	33.821255555275
0	-1	1.595	36.497369744054
0	-1	1.595	27.124493733775
0	-1	1.595	32.913178832845
0	-1	1.597	18.713634941884
0	-1	1.6	36.497369744054
0	-1	1.602	18.713634941884
0	-1	1.61	22.34439199187
0	-1	1.61	33.821255555275
0	-1	1.615	36.497369744054
0	-1	1.615	27.124493733775
0	-1	1.615	32.913178832845
0	-1	1.617	18.713634941884
0	-1	1.62	36.497369744054
0	-1	1.622	18.713634941884
0	-1	1.63	22.34439199187
0	-1	1.63	33.821255555275
0	-1	1.635	36.497369744054
0	-1	1.635	27.124493733775
0	-1	1.635	32.913178832845
0	-1	1.637	18.713634941884
0	-1	1.64	36.497369744054
0	-1	1.642	18.713634941884
0	-1	1.65	22.34439199187
0	-1	1.65	33.821255555275
0	-1	1.655	36.497369744054
0	-1	1.655	27.124493733775
0	-1	1.655	32.913178832845
0	-1	1.657	18.713634941884
0	-1	1.66	36.497369744054
0	-1	1.662	18.713634941884
0	-1	1.67	22.34439199187
0	-1	1.67	33.821255555275
0	-1	1.675	36.497369744054
0	-1	1.675	27.124493733775
0	-1	1.675	32.913178832845
0	-1	1.677	18.713634941884
0	-1	1.68	36.497369744054
0	-1	1.682	18.713634941884
0	-1	1.69	22.34439199187
0	-1	1.69	33.821255555275
0	-1	1.695	36.497369744054
0	-1	1.695	27.124493733775
0	-1	1.695	32.913178832845
0	-1	1.697	18.713634941884
0	-1	1.7	36.497369744054
0	-1	1.702	18.713634941884
0	-1	1.71	22.34439199187
0	-1	1.71	33.821255555275
0	-1	1.715	36.497369744054
0	-1	1.715	27.124493733775
0	-1	1.715	32.913178832845
0	-1	1.717	18.713634941884
0	-1	1.72	36.497369744054
0	-1	1.722	18.713634941884
0	-1	1.73	22.34439199187
0	-1	1.73	33.821255555275
0	-1	1.735	36.497369744054
0	-1	1.735	27.124493733775
0	-1	1.735	32.913178832845
0	-1	1.737	18.713634941884
0	-1	1.74	36.497369744054
0	-1	1.742	18.713634941884
0	-1	1.75	22.34439199187
0	-1	1.75	33.821255555275
0	-1	1.755	36.497369744054
0	-1	1.755	27.124493733775
0	-1	1.755	32.913178832845
0	-1	1.757	18.713634941884
0	-1	1.76	36.497369744054
0	-1	1.762	18.713634941884
0	-1	1.77	22.34439199187
0	-1	1.77	33.821255555275
0	-1	1.775	36.497369744054
0	-1	1.775	27.124493733775
0	-1	1.775	32.913178832845
0	-1	1.777	18.713634941884
0	-1	1.78	36.497369744054
0	-1	1.782	18.713634941884
0	-1	1.79	22.34439199187
0	-1	1.79	33.821255555275
0	-1	1.795	36.497369744054
0	-1	1.795	27.124493733775
0	-1	1.795	32.913178832845
0	-1	1.797	18.713634941884
0	-1	1.8	36.497369744054
0	-1	1.802	18.713634941884
0	-1	1.81	22.34439199187
0	-1	1.81	33.821255555275
0	-1	1.815	36.497369744054
0	-1	1.815	27.124493733775
0	-1	1.815	32.913178832845
0	-1	1.817	18.713634941884
0	-1	1.82	36.497369744054
0	-1	1.822	18.713634941884
0	-1	1.83	22.34439199187
0	-1	1.83	33.821255555275
0	-1	1.835	36.497369744054
0	-1	1.835	27.124493733775
0	-1	1.835	32.913178832845
0	-1	1.837	18.713634941884
0	-1	1.84	36.497369744054
0	-1	1.842	18.713634941884
0	-1	1.85	22.34439199187
0	-1	1.85	33.821255555275
0	-1	1.855	36.497369744054
0	-1	1.855	27.124493733775
0	-1	1.855	32.913178832845
0	-1	1.857	18.713634941884
0	-1	1.86	36.497369744054
0	-1	1.862	18.713634941884
0	-1	1.87	22.34439199187
0	-1	1.87	33.821255555275
0	-1	1.875	36.497369744054
0	-1	1.875	27.124493733775
0	-1	1.875	32.913178832845
0	-1	1.877	18.713634941884
0	-1	1.88	36.497369744054
0	-1	1.882	18.713634941884
0	-1	1.89	22.34439199187
0	-1	1.89	33.821255555275
0	-1	1.895	36.497369744054
0	-1	1.895	27.124493733775
0	-1	1.895	32.913178832845
0	-1	1.897	18.713634941884
0	-1	1.9	36.497369744054
0	-1	1.902	18.713634941884
0	-1	1.91	22.34439199187
0	-1	1.91	33.821255555275
0	-1	1.915	36.497369744054
0	-1	1.915	27.124493733775
0	-1	1.915	32.913178832845
0	-1	1.917	18.713634941884
0	-1	1.92	36.497369744054
0	-1	1.922	18.713634941884
0	-1	1.93	22.34439199187
0	-1	1.93	33.821255555275
0	-1	1.935	36.497369744054
0	-1	1.935	27.124493733775
0	-1	1.935	32.913178832845
0	-1	1.937	18.713634941884
0	-1	1.94	36.497369744054
0	-1	1.942	18.713634941884
0	-1	1.95	22.34439199187
0	-1	1.95	33.821255555275
0	-1	1.955	36.497369744054
0	-1	1.955	27.124493733775
0	-1	1.955	32.913178832845
0	-1	1.957	18.713634941884
0	-1	1.96	36.497369744054
0	-1	1.962	18.713634941884
0	-1	1.97	22.34439199187
0	-1	1.97	33.821255555275
0	-1	1.975	36.497369744054
0	-1	1.975	27.124493733775
0	-1	1.975	32.913178832845
0	-1	1.977	18.713634941884
0	-1	1.98	36.497369744054
0	-1	1.982	18.713634941884
0	-1	1.99	22.34439199187
0	-1	1.99	33.821255555275
0	-1	1.995	36.497369744054
0	-1	1.995	27.124493733775
0	-1	1.995	32.913178832845
0	-1	1.997	18.713634941884
0	-1	2	36.497369744054
0	-1	2.002	18.713634941884
0	-1	2.01	22.34439199187
0	-1	2.01	33.821255555275
0	-1	2.015	36.497369744054
0	-1	2.015	27.124493733775
0	-1	2.015	32.913178832845
0	-1	2.017	18.713634941884
0	-1	2.02	36.497369744054
0	-1	2.022	18.713634941884
0	-1	2.03	22.34439199187
0	-1	2.03	33.821255555275
0	-1	2.035	36.497369744054
0	-1	2.035	27.124493733775
0	-1	2.035	32.913178832845
0	-1	2.037	18.713634941884
0	-1	2.04	36.497369744054
0	-1	2.042	18.713634941884
0	-1	2.05	22.34439199187
0	-1	2.05	33.821255555275
0	-1	2.055	36.497369744054
0	-1	2.055	27.124493733775
0	-1	2.055	32.913178832845
0	-1	2.057	18.713634941884
0	-1	2.06	36.497369744054
0	-1	2.062	18.713634941884
0	-1	2.07	22.34439199187
0	-1	2.07	33.821255555275
0	-1	2.075	36.497369744054
0	-1	2.075	27.124493733775
0	-1	2.075	32.913178832845
0	-1	2.077	18.713634941884
0	-1	2.08	36.497369744054
0	-1	2.082	18.713634941884
0	-1	2.09	22.34439199187
0	-1	2.09	33.821255555275
0	-1	2.095	36.497369744054
0	-1	2.095	27.124493733775
0	-1	2.095	32.913178832845
0	-1	2.097	18.713634941884
0	-1	2.1	36.497369744054
0	-1	2.102	18.713634941884
0	-1	2.11	22.34439199187
0	-1	2.11	33.821255555275
0	-1	2.115	36.497369744054
0	-1	2.115	27.124493733775
0	-1	2.115	32.913178832845
0	-1	2.117	18.713634941884
0	-1	2.12	36.497369744054
0	-1	2.122	18.713634941884
0	-1	2.13	22.34439199187
0	-1	2.13	33.821255555275
0	-1	2.135	36.497369744054
0	-1	2.135	27.124493733775
0	-1	2.135	32.913178832845
0	-1	2.137	18.713634941884
0	-1	2.14	36.497369744054
0	-1	2.142	18.713634941884
0	-1	2.15	22.34439199187
0	-1	2.15	33.821255555275
0	-1	2.155	36.497369744054
0	-1	2.155	27.124493733775
0	-1	2.155	32.913178832845
0	-1	2.157	18.713634941884
0	-1	2.16	36.497369744054
0	-1	2.162	18.713634941884
0	-1	2.17	22.34439199187
0	-1	2.17	33.821255555275
0	-1	2.175	36.497369744054
0	-1	2.175	27.124493733775
0	-1	2.175	32.913178832845
0	-1	2.177	18.713634941884
0	-1	2.18	36.497369744054
0	-1	2.182	18.713634941884
0	-1	2.19	22.34439199187
0	-1	2.19	33.821255555275
0	-1	2.195	36.497369744054
0	-1	2.195	27.124493733775
0	-1	2.195	32.913178832845
0	-1	2.197	18.713634941884
0	-1	2.2	36.497369744054
0	-1	2.202	18.713634941884
0	-1	2.21	22.34439199187
0	-1	2.21	33.821255555275
0	-1	2.215	36.497369744054
0	-1	2.215	27.124493733775
0	-1	2.215	32.913178832845
0	-1	2.217	18.713634941884
0	-1	2.22	36.497369744054
0	-1	2.222	18.713634941884
0	-1	2.23	22.34439199187
0	-1	2.23	33.821255555275
0	-1	2.235	36.497369744054
0	-1	2.235	27.124493733775
0	-1	2.235	32.913178832845
0	-1	2.237	18.713634941884
0	-1	2.24	36.497369744054
0	-1	2.242	18.713634941884
0	-1	2.25	22.34439199187
0	-1	2.25	33.821255555275
0	-1	2.255	36.497369744054
0	-1	2.255	27.124493733775
0	-1	2.255	32.913178832845
0	-1	2.257	18.713634941884
0	-1	2.26	36.497369744054
0	-1	2.262	18.713634941884
0	-1	2.27	22.34439199187
0	-1	2.27	33.821255555275
0	-1	2.275	36.497369744054
0	-1	2.275	27.124493733775
0	-1	2.275	32.913178832845
0	-1	2.277	18.713634941884
0	-1	2.28	36.497369744054
0	-1	2.282	18.713634941884
0	-1	2.29	22.34439199187
0	-1	2.29	33.821255555275
0	-1	2.295	36.497369744054
0	-1	2.295	27.124493733775
0	-1	2.295	32.913178832845
0	-1	2.297	18.713634941884
0	-1	2.3	36.497369744054
0	-1	2.302	18.713634941884
0	-1	2.31	22.34439199187
0	-1	2.31	33.821255555275
0	-1	2.315	36.497369744054
0	-1	2.315	27.124493733775
0	-1	2.315	32.913178832845
0	-1	2.317	18.713634941884
0	-1	2.32	36.497369744054
0	-1	2.322	18.713634941884
0	-1	2.33	22.34439199187
0	-1	2.33	33.821255555275
0	-1	2.335	36.497369744054
0	-1	2.335	27.124493733775
0	-1	2.335	32.913178832845
0	-1	2.337	18.713634941884
0	-1	2.34	36.497369744054
0	-1	2.342	18.713634941884
0	-1	2.35	22.34439199187
0	-1	2.35	33.821255555275
0	-1	2.355	36.497369744054
0	-1	2.355	27.124493733775
0	-1	2.355	32.913178832845
0	-1	2.357	18.713634941884
0	-1	2.36	36.497369744054
0	-1	2.362	18.713634941884
0	-1	2.37	22.34439199187
0	-1	2.37	33.821255555275
0	-1	2.375	36.497369744054
0	-1	2.375	27.124493733775
0	-1	2.375	32.913178832845
0	-1	2.377	18.713634941884
0	-1	2.38	36.497369744054
0	-1	2.382	18.713634941884
0	-1	2.39	22.34439199187
0	-1	2.39	33.821255555275
0	-1	2.395	36.497369744054
0	-1	2.395	27.124493733775
0	-1	2.395	32.913178832845
0	-1	2.397	18.713634941884
0	-1	2.4	36.497369744054
0	-1	2.402	18.713634941884
0	-1	2.41	22.34439199187
0	-1	2.41	33.821255555275
0	-1	2.415	36.497369744054
0	-1	2.415	27.124493733775
0	-1	2.415	32.913178832845
0	-1	2.417	18.713634941884
0	-1	2.42	36.497369744054
0	-1	2.422	18.713634941884
0	-1	2.43	22.34439199187
0	-1	2.43	33.821255555275
0	-1	2.435	36.497369744054
0	-1	2.435	27.124493733775
0	-1	2.435	32.913178832845
0	-1	2.437	18.713634941884
0	-1	2.44	36.497369744054
0	-1	2.442	18.713634941884
0	-1	2.45	22.34439199187
0	-1	2.45	33.821255555275
0	-1	2.455	36.497369744054
0	-1	2.455	27.124493733775
0	-1	2.455	32.913178832845
0	-1	2.457	18.713634941884
0	-1	2.46	36.497369744054
0	-1	2.462	18.713634941884
0	-1	2.47	22.34439199187
0	-1	2.47	33.821255555275
0	-1	2.475	36.497369744054
0	-1	2.475	27.124493733775
0	-1	2.475	32.913178832845
0	-1	2.477	18.713634941884
0	-1	2.48	36.497369744054
0	-1	2.482	18.713634941884
0	-1	2.49	22.34439199187
0	-1	2.49	33.821255555275
0	-1	2.495	36.497369744054
0	-1	2.495	27.124493733775
0	-1	2.495	32.913178832845
0	-1	2.497	18.713634941884
0	-1	2.5	36.497369744054
0	-1	2.502	18.713634941884
0	-1	2.51	22.34439199187
0	-1	2.51	33.821255555275
0	-1	2.515	36.497369744054
0	-1	2.515	27.124493733775
0	-1	2.515	32.913178832845
0	-1	2.517	18.713634941884
0	-1	2.52	36.497369744054
0	-1	2.522	18.713634941884
0	-1	2.53	22.34439199187
0	-1	2.53	33.821255555275
0	-1	2.535	36.497369744054
0	-1	2.535	27.124493733775
0	-1	2.535	32.913178832845
0	-1	2.537	18.713634941884
0	-1	2.54	36.497369744054
0	-1	2.542	18.713634941884
0	-1	2.55	22.34439199187
0	-1	2.55	33.821255555275
0	-1	2.555	36.497369744054
0	-1	2.555	27.124493733775
0	-1	2.555	32.913178832845
0	-1	2.557	18.713634941884
0	-1	2.56	36.497369744054
0	-1	2.562	18.713634941884
0	-1	2.57	22.34439199187
0	-1	2.57	33.821255555275
0	-1	2.575	36.497369744054
0	-1	2.575	27.124493733775
0	-1	2.575	32.913178832845
0	-1	2.577	18.713634941884
0	-1	2.58	36.497369744054
0	-1	2.582	18.713634941884
0	-1	2.59	22.34439199187
0	-1	2.59	33.821255555275
0	-1	2.595	36.497369744054
0	-1	2.595	27.124493733775
0	-1	2.595	32.913178832845
0	-1	2.597	18.713634941884
0	-1	2.6	36.497369744054
0	-1	2.602	18.713634941884
0	-1	2.61	22.34439199187
0	-1	2.61	33.821255555275
0	-1	2.615	36.497369744054
0	-1	2.615	27.124493733775
0	-1	2.615	32.913178832845
0	-1	2.617	18.713634941884
0	-1	2.62	36.497369744054
0	-1	2.622	18.713634941884
0	-1	2.63	22.34439199187
0	-1	2.63	33.821255555275
0	-1	2.635	36.497369744054
0	-1	2.635	27.124493733775
0	-1	2.635	32.913178832845
0	-1	2.637	18.713634941884
0	-1	2.64	36.497369744054
0	-1	2.642	18.713634941884
0	-1	2.65	22.34439199187
0	-1	2.65	33.821255555275
0	-1	2.655	36.497369744054
0	-1	2.655	27.124493733775
0	-1	2.655	32.913178832845
0	-1	2.657	18.713634941884
0	-1	2.66	36.497369744054
0	-1	2.662	18.713634941884
0	-1	2.67	22.34439199187
0	-1	2.67	33.821255555275
0	-1	2.675	36.497369744054
0	-1	2.675	27.124493733775
0	-1	2.675	32.913178832845
0	-1	2.677	18.713634941884
0	-1	2.68	36.497369744054
0	-1	2.682	18.713634941884
0	-1	2.69	22.34439199187
0	-1	2.69	33.821255555275
0	-1	2.695	36.497369744054
0	-1	2.695	27.124493733775
0	-1	2.695	32.913178832845
0	-1	2.697	18.713634941884
0	-1	2.7	36.497369744054
0	-1	2.702	18.713634941884
0	-1	2.71	22.34439199187
0	-1	2.71	33.821255555275
0	-1	2.715	36.497369744054
0	-1	2.715	27.124493733775
0	-1	2.715	32.913178832845
0	-1	2.717	18.713634941884
0	-1	2.72	36.497369744054
0	-1	2.722	18.713634941884
0	-1	2.73	22.34439199187
0	-1	2.73	33.821255555275
0	-1	2.735	36.497369744054
0	-1	2.735	27.124493733775
0	-1	2.735	32.913178832845
0	-1	2.737	18.713634941884
0	-1	2.74	36.497369744054
0	-1	2.742	18.713634941884
0	-1	2.75	22.34439199187
0	-1	2.75	33.821255555275
0	-1	2.755	36.497369744054
0	-1	2.755	27.124493733775
0	-1	2.755	32.913178832845
0	-1	2.757	18.713634941884
0	-1	2.76	36.497369744054
0	-1	2.762	18.713634941884
0	-1	2.77	22.34439199187
0	-1	2.77	33.821255555275
0	-1	2.775	36.497369744054
0	-1	2.775	27.124493733775
0	-1	2.775	32.913178832845
0	-1	2.777	18.713634941884
0	-1	2.78	36.497369744054
0	-1	2.782	18.713634941884
0	-1	2.79	22.34439199187
0	-1	2.79	33.821255555275
0	-1	2.795	36.497369744054
0	-1	2.795	27.124493733775
0	-1	2.795	32.913178832845
0	-1	2.797	18.713634941884
0	-1	2.8	36.497369744054
0	-1	2.802	18.713634941884
0	-1	2.81	22.34439199187
0	-1	2.81	33.821255555275
0	-1	2.815	36.497369744054
0	-1	2.815	27.124493733775
0	-1	2.815	32.913178832845
0	-1	2.817	18.713634941884
0	-1	2.82	36.497369744054
0	-1	2.822	18.713634941884
0	-1	2.83	22.34439199187
0	-1	2.83	33.821255555275
0	-1	2.835	36.497369744054
0	-1	2.835	27.124493733775
0	-1	2.835	32.913178832845
0	-1	2.837	18.713634941884
0	-1	2.84	36.497369744054
0	-1	2.842	18.713634941884
0	-1	2.85	22.34439199187
0	-1	2.85	33.821255555275
0	-1	2.855	36.497369744054
0	-1	2.855	27.124493733775
0	-1	2.855	32.913178832845
0	-1	2.857	18.713634941884
0	-1	2.86	36.497369744054
0	-1	2.862	18.713634941884
0	-1	2.87	22.34439199187
0	-1	2.87	33.821255555275
0	-1	2.875	36.497369744054
0	-1	2.875	27.124493733775
0	-1	2.875	32.913178832845
0	-1	2.877	18.713634941884
0	-1	2.88	36.497369744054
0	-1	2.882	18.713634941884
0	-1	2.89	22.34439199187
0	-1	2.89	33.821255555275
0	-1	2.895	36.497369744054
0	-1	2.895	27.124493733775
0	-1	2.895	32.913178832845
0	-1	2.897	18.713634941884
0	-1	2.9	36.497369744054
0	-1	2.902	18.713634941884
0	-1	2.91	22.34439199187
0	-1	2.91	33.821255555275
0	-1	2.915	36.497369744054
0	-1	2.915	27.124493733775
0	-1	2.915	32.913178832845
0	-1	2.917	18.713634941884
0	-1	2.92	36.497369744054
0	-1	2.922	18.713634941884
0	-1	2.93	22.34439199187
0	-1	2.93	33.821255555275
0	-1	2.935	36.497369744054
0	-1	2.935	27.124493733775
0	-1	2.935	32.913178832845
0	-1	2.937	18.713634941884
0	-1	2.94	36.497369744054
0	-1	2.942	18.713634941884
0	-1	2.95	22.34439199187
0	-1	2.95	33.821255555275
0	-1	2.955	36.497369744054
0	-1	2.955	27.124493733775
0	-1	2.955	32.913178832845
0	-1	2.957	18.713634941884
0	-1	2.96	36.497369744054
0	-1	2.962	18.713634941884
0	-1	2.97	22.34439199187
0	-1	2.97	33.821255555275
0	-1	2.975	36.497369744054
0	-1	2.975	27.124493733775
0	-1	2.975	32.913178832845